********************************************************************************
*                       GENERAL UTILITY LATTICE PROGRAM                        *
*                                 Julian Gale                                  *
*                      Nanochemistry Research Institute                        *
*                           Department of Chemistry                            *
*                    Curtin University, Western Australia                      *
********************************************************************************
* Version = 4.3.3 * Last modified =  5th August 2015                           *
********************************************************************************
*  optimise     - perform optimisation run                                     *
*  conp         - constant pressure calculation                                *
********************************************************************************

  Job Started  at 16:51.46 18th April      2019                               

  Number of CPUs =     1

  Host name      = ilogin                                  


  Total number of configurations input =   1

********************************************************************************
*  Input for Configuration =   1                                               *
********************************************************************************

  Formula = Si54O108                                                    

  Number of irreducible atoms/shells =      29


  Total number atoms/shells =     270

  Dimensionality = 3               :  Bulk   


  Symmetry :

  Crystal family                   :  Hexagonal   
  Crystal class  (Groth - 1921)    :  Ditrigonal Scalenohedral             

  Space group (centrosymmetric)    :  R -3 M          

  Patterson group                  :  R -3 m   

  Cartesian lattice vectors (Angstroms) :

       11.000000    6.350853    7.333333
      -11.000000    6.350853    7.333333
        0.000000  -12.701706    7.333333

  Primitive cell parameters :            Full cell parameters :

  a =  14.6667    alpha =  97.1808       a =  22.0000    alpha =  90.0000
  b =  14.6667    beta  =  97.1808       b =  22.0000    beta  =  90.0000
  c =  14.6667    gamma =  97.1808       c =  22.0000    gamma = 120.0000

  Initial volumes (Angstroms**3):

  Primitive cell =        3073.812833    Full cell =        9221.438499

  Temperature of configuration =  0.000     K 

  Pressure of configuration =         0.000 GPa 

  Fractional coordinates of asymmetric unit :

--------------------------------------------------------------------------------
   No.  Atomic       x           y          z         Charge      Occupancy
        Label      (Frac)      (Frac)     (Frac)        (e)         (Frac)  
--------------------------------------------------------------------------------
      1 Si1   c    0.283527 *  0.000000    0.000000     4.00000    1.000000    
      2 Si2   c    0.677355 *  0.084197 *  0.757441 *   4.00000    1.000000    
      3 Si3   c    0.420317 *  0.275442 *  0.558304 *   4.00000    1.000000    
      4 Si4   c    0.669298 *  0.480417 *  0.997308 *   4.00000    1.000000    
      5 Si5   c    0.271524 *  0.401388 *  0.791120 *   4.00000    1.000000    
      6 O1    c    0.274403 *  0.030905 *  0.062226 *   0.86902    1.000000    
      7 O2    c    0.313774 *  0.963245 *  0.045387 *   0.86902    1.000000    
      8 O3    c    0.666667    0.078853 *  0.833333     0.86902    1.000000    
      9 O4    c    0.744449 *  0.071044 *  0.766235 *   0.86902    1.000000    
     10 O5    c    0.670695 *  0.135223 *  0.713400 *   0.86902    1.000000    
     11 O6    c    0.420317 *  0.210159    0.558304 *   0.86902    1.000000    
     12 O7    c    0.471266 *  0.305704 *  0.613832 *   0.86902    1.000000    
     13 O8    c    0.441757 *  0.335292 *  0.508046 *   0.86902    1.000000    
     14 O9    c    0.594440 *  0.405559    0.997308 *   0.86902    1.000000    
     15 O10   c    0.740209 *  0.480417    0.997308 *   0.86902    1.000000    
     16 O11   c    0.237496 *  0.333334    0.833333     0.86902    1.000000    
     17 O12   c    0.200694 *  0.401388    0.791120 *   0.86902    1.000000    
     18 O1    s    0.274403 *  0.030905 *  0.062226 *  -2.86902    1.000000    
     19 O2    s    0.313774 *  0.963245 *  0.045387 *  -2.86902    1.000000    
     20 O3    s    0.666667    0.078853 *  0.833333    -2.86902    1.000000    
     21 O4    s    0.744449 *  0.071044 *  0.766235 *  -2.86902    1.000000    
     22 O5    s    0.670695 *  0.135223 *  0.713400 *  -2.86902    1.000000    
     23 O6    s    0.420317 *  0.210159    0.558304 *  -2.86902    1.000000    
     24 O7    s    0.471266 *  0.305704 *  0.613832 *  -2.86902    1.000000    
     25 O8    s    0.441757 *  0.335292 *  0.508046 *  -2.86902    1.000000    
     26 O9    s    0.594440 *  0.405559    0.997308 *  -2.86902    1.000000    
     27 O10   s    0.740209 *  0.480417    0.997308 *  -2.86902    1.000000    
     28 O11   s    0.237496 *  0.333334    0.833333    -2.86902    1.000000    
     29 O12   s    0.200694 *  0.401388    0.791120 *  -2.86902    1.000000    
--------------------------------------------------------------------------------


  Constraints : 

--------------------------------------------------------------------------------
  Constraint no.      Unconstrained     Constrained    Coefficient    Offset
                         Variable         Variable
--------------------------------------------------------------------------------
           1              Strain 1        Strain 2       1.00000      0.0000
           2                11 x            11 y         0.50000      0.0000
           3                14 x            14 y        -1.00000      1.0000
           4                15 x            15 y         2.00000     -1.0000
           5                17 x            17 y         2.00000      0.0000
           6                23 x            23 y         0.50000      0.0000
           7                26 x            26 y        -1.00000      1.0000
           8                27 x            27 y         2.00000     -1.0000
           9                29 x            29 y         2.00000      0.0000
--------------------------------------------------------------------------------


********************************************************************************
*  General input information                                                   *
********************************************************************************

  Species output for all configurations : 

--------------------------------------------------------------------------------
  Species    Type    Atomic    Atomic    Charge       Radii (Angs)     Library
                     Number     Mass       (e)     Cova   Ionic  VDW   Symbol
--------------------------------------------------------------------------------
    O        Core        8      16.00   0.869020   0.730  0.000  1.360 O_O2-    
    O        Shell       8       0.00  -2.869020   0.730  0.000  1.360 O_O2-    
    Si       Core       14      28.09   4.000000   1.200  0.000  2.100 Si       
--------------------------------------------------------------------------------


  Lattice summation method               =    Ewald          (3-D)
                                         =    Parry          (2-D)
                                         =    Saunders et al (1-D)
  Accuracy factor for lattice sums       =   12.000


  Time limit = Infinity

  Maximum range for interatomic potentials =    100000.000000 Angstroms

  General interatomic potentials :

--------------------------------------------------------------------------------
Atom  Types   Potential         A         B         C         D     Cutoffs(Ang)
  1     2                                                            Min    Max 
--------------------------------------------------------------------------------
Si   c O    s Buckingham    0.128E+04 0.321      10.7      0.00     0.000 10.000
O    s O    s Buckingham    0.228E+05 0.149      27.9      0.00     0.000 12.000
O    c O    s Spring (c-s)   74.9      0.00      0.00      0.00     0.000  0.800
--------------------------------------------------------------------------------

  General Three-body potentials :

  Harmonic form:

--------------------------------------------------------------------------------
Atom    Atom    Atom           Force Constants            Theta     Cutoffs  
  1       2       3     (eVrad**-2/eVrad**-3/eVrad**-4)   (deg)  1-2  1-3  2-3
--------------------------------------------------------------------------------
Si    c O     s O     s  2.097        0.0000    0.0000   109.470 0.00 0.00 0.00
                                                                 1.90 1.90 3.50
--------------------------------------------------------------------------------

********************************************************************************
*  Output for configuration   1                                                *
********************************************************************************


  Components of energy : 

--------------------------------------------------------------------------------
  Interatomic potentials     =        1787.56649237 eV
  Three-body potentials      =          27.39606175 eV
  Monopole - monopole (real) =       -6576.13201877 eV
  Monopole - monopole (recip)=       -2045.43642453 eV
  Monopole - monopole (total)=       -8621.56844330 eV
--------------------------------------------------------------------------------
  Total lattice energy : 
    Primitive unit cell      =       -6806.60588918 eV
    Non-primitive unit cell  =      -20419.81766754 eV
--------------------------------------------------------------------------------
  Total lattice energy (in kJmol-1): 
    Primitive unit cell      =         -656733.4198 kJ/(mole unit cells)
    Non-primitive unit cell  =        -1970200.2594 kJ/(mole unit cells)
--------------------------------------------------------------------------------


  Number of variables =       71

  Maximum number of calculations  =          1000
  Maximum Hessian update interval =            10
  Maximum step size               =   1.000000000
  Maximum parameter tolerance     =   0.000010000
  Maximum function  tolerance     =   0.000010000
  Maximum gradient  tolerance     =   0.001000000
  Maximum gradient  component     =   0.010000000

  Symmetry constrained optimisation

  Symmetry used for second derivatives

  Cell parameters to be optimised using strains

  Newton-Raphson optimiser to be used

  BFGS hessian update to be used

  Start of bulk optimisation :

  Cycle:      0 Energy:     -6806.605889  Gnorm:    183.163345  CPU:    0.541
  ** Hessian calculated **
  Cycle:      1 Energy:     -6861.625530  Gnorm:     56.116825  CPU:    1.353
  ** Hessian calculated **
  Cycle:      2 Energy:     -6902.166947  Gnorm:     40.561838  CPU:    2.982
  ** Hessian calculated **
  Cycle:      3 Energy:     -6920.961562  Gnorm:     21.029280  CPU:    4.533
  ** Hessian calculated **
  Cycle:      4 Energy:     -6936.470104  Gnorm:      9.049432  CPU:    5.822
  ** Hessian calculated **
  Cycle:      5 Energy:     -6938.700099  Gnorm:      3.124129  CPU:    7.123
  Cycle:      6 Energy:     -6938.982331  Gnorm:      1.964035  CPU:    8.115
  Cycle:      7 Energy:     -6939.172604  Gnorm:      1.271072  CPU:    8.912
  Cycle:      8 Energy:     -6939.250934  Gnorm:      1.153736  CPU:    9.900
  Cycle:      9 Energy:     -6939.301639  Gnorm:      0.949401  CPU:   10.695
  Cycle:     10 Energy:     -6939.355779  Gnorm:      1.170866  CPU:   11.682
  Cycle:     11 Energy:     -6939.382459  Gnorm:      0.826524  CPU:   12.475
  Cycle:     12 Energy:     -6939.397853  Gnorm:      0.622535  CPU:   13.461
  Cycle:     13 Energy:     -6939.407187  Gnorm:      0.370529  CPU:   14.254
  Cycle:     14 Energy:     -6939.410877  Gnorm:      0.260864  CPU:   15.238
  ** Hessian calculated **
  Cycle:     15 Energy:     -6939.413348  Gnorm:      0.124602  CPU:   16.334
  Cycle:     16 Energy:     -6939.413900  Gnorm:      0.005966  CPU:   17.318
  Cycle:     17 Energy:     -6939.413901  Gnorm:      0.000825  CPU:   18.110
  Cycle:     18 Energy:     -6939.413901  Gnorm:      0.000825  CPU:   18.903
  Cycle:     19 Energy:     -6939.413901  Gnorm:      0.000825  CPU:   19.503
  ** Hessian calculated **
  Cycle:     20 Energy:     -6939.413901  Gnorm:      0.000669  CPU:   20.599
  Cycle:     21 Energy:     -6939.413901  Gnorm:      0.000663  CPU:   21.391
  Cycle:     22 Energy:     -6939.413901  Gnorm:      0.000663  CPU:   22.183
  ** Hessian calculated **
  Cycle:     23 Energy:     -6939.413901  Gnorm:      0.000663  CPU:   23.278
  ** Hessian calculated **


  **** Optimisation achieved ****


  Final energy =   -6939.41390063 eV
  Final Gnorm  =       0.00066281

  Components of energy : 

--------------------------------------------------------------------------------
  Interatomic potentials     =        1892.92963201 eV
  Three-body potentials      =           1.83655129 eV
  Monopole - monopole (real) =       -5836.24287270 eV
  Monopole - monopole (recip)=       -2997.93721123 eV
  Monopole - monopole (total)=       -8834.18008393 eV
--------------------------------------------------------------------------------
  Total lattice energy : 
    Primitive unit cell      =       -6939.41390063 eV
    Non-primitive unit cell  =      -20818.24170189 eV
--------------------------------------------------------------------------------
  Total lattice energy (in kJmol-1): 
    Primitive unit cell      =         -669547.3628 kJ/(mole unit cells)
    Non-primitive unit cell  =        -2008642.0883 kJ/(mole unit cells)
--------------------------------------------------------------------------------

  Final asymmetric unit coordinates :

--------------------------------------------------------------------------------
   No.  Atomic        x           y           z         Radius
        Label       (Frac)      (Frac)      (Frac)       (Angs) 
--------------------------------------------------------------------------------
     1  Si1   c     0.283814    0.000000    0.000000    0.000000
     2  Si2   c     0.686544    0.076446    0.758239    0.000000
     3  Si3   c     0.429877    0.285174    0.566241    0.000000
     4  Si4   c     0.665846    0.477378    0.977324    0.000000
     5  Si5   c     0.271905    0.405800    0.793401    0.000000
     6  O1    c     0.267507    0.047342    0.049832    0.000000
     7  O2    c     0.295092    0.944226    0.043236    0.000000
     8  O3    c     0.666667    0.053133    0.833333    0.000000
     9  O4    c     0.760122    0.077797    0.743654    0.000000
    10  O5    c     0.688490    0.150660    0.746419    0.000000
    11  O6    c     0.442618    0.221310    0.556121    0.000000
    12  O7    c     0.484616    0.336772    0.621786    0.000000
    13  O8    c     0.450220    0.322906    0.495747    0.000000
    14  O9    c     0.605067    0.394932    0.979255    0.000000
    15  O10   c     0.741433    0.482864    0.963377    0.000000
    16  O11   c     0.243691    0.333334    0.833333    0.000000
    17  O12   c     0.217005    0.434009    0.796563    0.000000
    18  O1    s     0.268606    0.043601    0.052822    0.000000
    19  O2    s     0.300240    0.950136    0.043921    0.000000
    20  O3    s     0.666667    0.056238    0.833333    0.000000
    21  O4    s     0.757717    0.074450    0.747678    0.000000
    22  O5    s     0.686088    0.146714    0.741731    0.000000
    23  O6    s     0.439343    0.219672    0.558809    0.000000
    24  O7    s     0.482719    0.330825    0.623076    0.000000
    25  O8    s     0.449809    0.326954    0.499678    0.000000
    26  O9    s     0.602731    0.397268    0.978847    0.000000
    27  O10   s     0.740826    0.481650    0.966367    0.000000
    28  O11   s     0.241878    0.333334    0.833333    0.000000
    29  O12   s     0.213783    0.427565    0.795840    0.000000
--------------------------------------------------------------------------------

  Final Cartesian lattice vectors (Angstroms) :

       10.896252    6.290954    6.740266
      -10.896252    6.290954    6.740266
        0.000000  -12.581908    6.740266


  Final cell parameters and derivatives :

--------------------------------------------------------------------------------
       a           14.273598 Angstrom     dE/de1(xx)     0.004195 eV/strain
       b           14.273598 Angstrom     dE/de2(yy)     0.000000 eV/strain
       c           14.273598 Angstrom     dE/de3(zz)     0.002691 eV/strain
       alpha       99.527072 Degrees      dE/de4(yz)     0.000000 eV/strain
       beta        99.527072 Degrees      dE/de5(xz)     0.000000 eV/strain
       gamma       99.527072 Degrees      dE/de6(xy)     0.000000 eV/strain
--------------------------------------------------------------------------------

  Primitive cell volume =          2772.183588 Angs**3

  Density of cell =      1.943703 g/cm**3

  Non-primitive lattice parameters :

  a    =    21.792504  b   =    21.792504  c    =    20.220799
  alpha=    90.000000  beta=    90.000000  gamma=   120.000000

  Non-primitive cell volume =          8316.550765 Angs**3


  Final internal derivatives :

--------------------------------------------------------------------------------
   No.  Atomic          a             b             c           Radius
        Label          (eV)          (eV)          (eV)        (eV/Angs)
--------------------------------------------------------------------------------
      1 Si1   c       0.001707      0.000000      0.000000      0.000000
      2 Si2   c       0.000497      0.004036     -0.005941      0.000000
      3 Si3   c       0.005280      0.004366      0.023960      0.000000
      4 Si4   c       0.000182      0.000755      0.006354      0.000000
      5 Si5   c      -0.013856      0.016428     -0.004571      0.000000
      6 O1    c      -0.000210      0.001431     -0.002307      0.000000
      7 O2    c      -0.002214      0.000104     -0.001759      0.000000
      8 O3    c       0.000000     -0.003196      0.000000      0.000000
      9 O4    c      -0.002448      0.005461      0.001510      0.000000
     10 O5    c       0.004317     -0.004811      0.001795      0.000000
     11 O6    c       0.000599      0.000000     -0.004378      0.000000
     12 O7    c      -0.004586     -0.005167     -0.008250      0.000000
     13 O8    c       0.003785     -0.000178     -0.011545      0.000000
     14 O9    c       0.002525      0.000000      0.002698      0.000000
     15 O10   c       0.001058      0.000000      0.001196      0.000000
     16 O11   c       0.008583      0.000000      0.000000      0.000000
     17 O12   c       0.002955      0.000000     -0.000612      0.000000
     18 O1    s      -0.002013     -0.000632     -0.000503      0.000000
     19 O2    s       0.000552      0.000734      0.001735      0.000000
     20 O3    s       0.000000     -0.000004      0.000000      0.000000
     21 O4    s      -0.001224     -0.003822      0.000603      0.000000
     22 O5    s      -0.000255      0.004838      0.003672      0.000000
     23 O6    s      -0.001928      0.000000     -0.001780      0.000000
     24 O7    s       0.002964      0.005503      0.009061      0.000000
     25 O8    s      -0.005651      0.001098     -0.002371      0.000000
     26 O9    s      -0.015785      0.000000     -0.000759      0.000000
     27 O10   s       0.002256      0.000000     -0.001776      0.000000
     28 O11   s      -0.003310      0.000000      0.000000      0.000000
     29 O12   s       0.001167      0.000000     -0.000707      0.000000
--------------------------------------------------------------------------------
  Maximum abs         0.015785      0.016428      0.023960      0.000000
--------------------------------------------------------------------------------


  Time to end of optimisation =      24.3753 seconds


  Peak dynamic memory used =       3.42 MB 


  Timing analysis for GULP :

--------------------------------------------------------------------------------
  Task / Subroutine                                          Time (Seconds)
--------------------------------------------------------------------------------
  Calculation of reciprocal space energy and derivatives          0.0012
  Calculation of reciprocal space energy using symmetry           1.2481
  Calculation of real space energy using symmetry                22.5513
  Calculation of three-body energy and derivatives                0.4726
  Calculation of matrix inversion                                 0.0025
  Symmetry generation of equivalent positions                     0.0292
--------------------------------------------------------------------------------
  Total CPU time                                                 24.3753
--------------------------------------------------------------------------------


  CIF file written as /data/home/jihong/workplace/wenyang/chemistry/1/new/1662


  Job Finished at 16:52.10 18th April      2019                               

